ITEM: TIMESTEP
1578000
ITEM: NUMBER OF ATOMS
922560
ITEM: BOX BOUNDS xy xz yz pp pp pp
-5.3845829954159559e+00 8.6332995040721710e+02 1.6920709941181667e+02
-9.2871044655078734e+00 1.1316560264654859e+03 0.0000000000000000e+00
-1.6286478982157654e-01 2.0003731789823583e+01 0.0000000000000000e+00
ITEM: ATOMS id type x y z c_csym c_peratom c_1 c_dis[1] c_dis[2] c_dis[3] c_dis[4]
1 1 541.663 563.81 8.87601 2.78755 -3.2762 0.261414 -506.252 0.537909 -0.0369882 506.252
2 1 540.581 563.902 6.08 5.07307 -3.22817 0.0976069 -505.96 0.672686 -0.316054 505.961
3 1 540.147 566.014 7.90463 1.71853 -3.34559 0.0355692 -506.42 0.379237 -0.251592 506.42
4 1 543.227 565.898 8.16876 3.24101 -3.25309 0.0420016 -506.104 0.257062 -0.0356616 506.104
5 1 543.363 563.676 6.5436 3.45664 -3.26117 0.128936 -505.915 0.379177 0.0540369 505.916
6 1 544.831 563.719 8.66401 1.24966 -3.3342 0.0436298 -505.797 0.445817 -0.366644 505.797
7 1 547.562 563.608 8.15722 6.91926 -3.24352 0.0728567 -505.812 0.459722 -0.95955 505.813
8 1 545.933 563.778 5.91739 3.77296 -3.31409 0.108295 -506.059 0.5662 -0.684632 506.06
9 1 546.302 566.019 7.74339 2.67689 -3.33883 0.0767941 -505.819 0.448496 -0.507859 505.82
10 1 548.911 566.056 7.83294 1.40619 -3.32601 0.0895028 -505.994 0.580031 -0.452819 505.994
11 1 548.931 563.706 6.02578 1.9798 -3.28367 0.0359078 -505.828 0.609152 -0.631835 505.829
12 1 550.244 563.621 8.33794 5.49405 -3.27418 0.0553108 -505.911 0.55353 -0.810067 505.912
13 1 553.019 563.814 8.34851 7.26093 -3.28079 0.0979035 -505.961 0.787132 -0.809242 505.962
14 1 551.644 563.676 5.88056 6.63714 -3.33749 0.0445516 -505.92 0.63083 -0.793435 505.921
15 1 551.685 566.065 7.64145 1.72485 -3.26742 0.0519901 -506.018 0.650766 -0.665947 506.019
16 1 554.444 566.215 7.26419 2.4642 -3.33004 0.123398 -506.076 0.840809 -1.05455 506.078
17 1 554.579 563.807 5.64768 8.04527 -3.19756 0.174345 -505.82 0.793342 -1.03171 505.822
18 1 555.801 564.214 8.46803 8.36584 -3.33591 0.0540841 -506.019 1.21205 -0.693267 506.021
19 1 558.671 563.916 8.42022 5.64361 -3.26082 0.0261023 -505.999 0.934608 -0.743266 506.001
20 1 557.236 563.901 5.786 6.5966 -3.34826 0.150805 -506.01 0.910013 -0.895451 506.011
21 1 557.098 566.251 7.30654 1.11091 -3.32239 0.0825188 -506.251 0.904428 -1.019 506.253
22 1 559.785 566.319 7.40874 0.935606 -3.37195 0.0333784 -506.403 0.994843 -0.92121 506.405
23 1 560.057 563.713 5.9427 6.97988 -3.3384 0.10995 -506.04 0.740043 -0.740779 506.041
24 1 561.265 564.009 8.63035 2.28858 -3.31244 0.0296599 -506.259 1.0439 -0.534 506.26
25 1 564.066 563.702 8.40765 2.28772 -3.31049 0.0713986 -506.313 0.751341 -0.7572 506.314
26 1 562.627 563.726 5.8401 4.40424 -3.17713 0.102111 -506.323 0.76855 -0.844979 506.325
27 1 562.629 566.629 7.41985 4.43212 -3.298 0.451341 -506.402 1.32226 -0.912876 506.405
28 1 565.621 566.118 7.40819 1.21377 -3.34312 0.0191992 -506.258 0.826034 -0.926181 506.259
29 1 565.832 564.09 5.74138 8.39677 -3.23502 0.16299 -505.975 1.14559 -0.944529 505.978
30 1 567.023 563.58 8.12138 1.98919 -3.33022 0.00856744 -506.213 0.641812 -1.04432 506.214
31 1 569.977 563.571 8.66277 2.875 -3.21762 0.114995 -506.116 0.643201 -0.503838 506.117
32 1 568.587 563.741 5.87335 1.38414 -3.32397 0.540795 -506.078 0.808109 -0.812443 506.079
33 1 568.639 566.142 7.56182 1.09704 -3.36171 0.0167381 -506.09 0.863577 -0.773678 506.092
34 1 571.318 565.987 7.57382 1.58466 -3.26208 0.049249 -506.264 0.719548 -0.763041 506.265
35 1 571.24 563.613 5.77615 1.19802 -3.31446 0.185022 -506.282 0.690601 -0.910224 506.284
36 1 572.62 563.741 8.10548 3.80516 -3.2936 0.0367919 -506.332 0.822496 -1.06152 506.334
37 1 575.814 563.517 8.39025 1.48781 -3.30792 0.0416672 -505.998 0.607989 -0.777052 505.999
38 1 574.067 563.399 5.63788 2.50751 -3.29444 0.0523989 -506.315 0.484862 -1.0491 506.316
39 1 574.564 565.983 7.37184 2.2017 -3.2912 0.0913066 -505.873 0.725946 -0.965968 505.874
40 1 577.414 565.505 7.14322 3.42929 -3.31092 0.394488 -505.878 0.257584 -1.19534 505.879
41 1 577.078 563.416 5.39682 2.28058 -3.25031 0.0909766 -506.164 0.511832 -1.29035 506.165
42 1 578.676 563.422 8.19903 1.42853 -3.31738 0.0877071 -505.996 0.522073 -0.968205 505.997
43 1 581.405 563.17 7.99708 1.72062 -3.35123 0.345851 -506.127 0.277523 -1.17046 506.128
44 1 579.877 563.567 5.51727 3.48678 -3.3038 0.0890454 -506.224 0.670926 -1.17013 506.226
45 1 580.236 565.87 7.34344 1.50852 -3.31937 0.0539888 -505.913 0.631488 -0.99549 505.915
46 1 582.957 565.689 7.32387 0.812731 -3.36615 0.101546 -506.05 0.458111 -1.01543 506.051
47 1 582.942 563.336 5.61821 0.941354 -3.34226 0.0846064 -506.02 0.447096 -1.06916 506.022
48 1 584.366 563.173 8.14448 1.07137 -3.3585 0.102552 -506.027 0.287713 -1.02311 506.028
49 1 587.451 563.222 8.16119 0.762118 -3.38699 0.0692588 -505.802 0.344101 -1.00632 505.803
50 1 585.827 563.395 5.83491 2.08849 -3.33004 0.036628 -505.996 0.513201 -0.852976 505.997
51 1 585.8 565.532 7.34035 0.763018 -3.32455 0.0370478 -506.064 0.309425 -0.999588 506.065
52 1 588.483 565.636 7.32303 2.83464 -3.32158 0.0217956 -506.24 0.42046 -1.01671 506.241
53 1 588.845 563.163 5.59275 0.898334 -3.3644 0.202508 -505.839 0.288318 -1.09495 505.84
54 1 590.471 563.548 8.09524 3.69318 -3.32274 0.0420176 -505.644 0.677513 -1.0724 505.645
55 1 593.387 563.037 7.95345 3.28032 -3.36771 0.0545087 -505.589 0.172712 -1.2143 505.59
56 1 591.731 563.149 5.6062 1.11551 -3.33901 0.118965 -505.814 0.28137 -1.08122 505.816
57 1 591.595 565.48 7.10495 2.53295 -3.2319 0.0897865 -505.987 0.271997 -1.23473 505.989
58 1 594.932 565.396 7.27284 2.35492 -3.24278 0.122783 -505.509 0.193928 -1.06706 505.511
59 1 594.489 563.275 5.35082 3.18134 -3.31138 0.210324 -505.917 0.413845 -1.33665 505.919
60 1 596.154 563.303 8.05753 1.66286 -3.24667 0.140882 -505.683 0.444774 -1.11045 505.685
61 1 599.183 562.98 8.29084 1.41499 -3.26177 0.00168587 -505.516 0.128007 -0.877076 505.517
62 1 597.725 563.224 5.84332 2.62904 -3.33654 0.0807168 -505.543 0.369284 -0.844334 505.544
63 1 597.86 565.67 7.20386 2.85361 -3.26038 0.0607398 -505.442 0.474791 -1.13641 505.443
64 1 600.483 565.545 7.3897 1.60927 -3.2755 0.26178 -505.678 0.355225 -0.950951 505.679
65 1 600.515 563.062 5.5312 2.03717 -3.31539 0.00665451 -505.615 0.212371 -1.15678 505.617
66 1 602.007 562.914 8.45884 2.02603 -3.34114 0.0747508 -505.553 0.0671417 -0.709104 505.554
67 1 604.793 563.214 8.24695 1.74005 -3.30589 0.102088 -505.63 0.372529 -0.921181 505.631
68 1 603.124 562.823 5.64684 2.77061 -3.31049 0.15328 -505.868 -0.0216616 -1.04114 505.869
69 1 603.092 565.15 7.47241 3.08879 -3.26442 0.0333163 -505.931 -0.0339097 -0.868356 505.931
70 1 606.172 565.438 7.12838 2.96118 -3.29175 0.098428 -505.711 0.258889 -1.21262 505.712
71 1 606.082 563.091 5.96002 2.82523 -3.33083 0.0374345 -505.772 0.25192 -0.728169 505.772
72 1 607.79 563.074 8.37796 1.66668 -3.35441 0.129304 -505.495 0.237244 -0.790554 505.496
73 1 610.771 563.001 8.346 1.50591 -3.29671 0.215012 -505.376 0.169068 -0.822906 505.377
74 1 609.219 563.046 6.03147 3.16235 -3.32994 0.0783475 -505.497 0.211207 -0.65717 505.497
75 1 609.178 565.367 7.44266 0.831866 -3.36427 0.0323838 -505.566 0.193093 -0.89872 505.567
76 1 612.093 565.536 7.27945 1.94267 -3.33664 0.088661 -505.512 0.365394 -1.06197 505.513
77 1 611.954 563.186 5.67874 3.05644 -3.33224 0.0994086 -505.624 0.355513 -1.00996 505.625
78 1 613.653 562.95 8.29807 1.1007 -3.29732 0.0144872 -505.356 0.121374 -0.870646 505.357
79 1 616.647 562.97 8.37022 1.93265 -3.36273 0.0798349 -505.225 0.145709 -0.798171 505.225
80 1 615.42 563.071 5.70538 5.19492 -3.21737 0.0515967 -505.021 0.244945 -0.983079 505.022
81 1 614.97 565.178 7.32282 1.12221 -3.32581 0.10131 -505.497 0.0120543 -1.01839 505.498
82 1 617.903 565.034 7.32748 2.03359 -3.3332 0.044558 -505.425 -0.128192 -1.01341 505.426
83 1 617.859 562.707 5.69935 2.0067 -3.25553 0.123634 -505.444 -0.115595 -0.988728 505.445
84 1 619.571 562.555 8.08681 3.94781 -3.31499 0.0878279 -505.163 -0.265766 -1.08107 505.165
85 1 622.344 563.086 8.12216 1.31701 -3.22827 0.131283 -505.253 0.270152 -1.04505 505.254
86 1 620.895 562.866 5.24593 3.91085 -3.31246 0.0151747 -505.27 0.0479948 -1.44151 505.272
87 1 620.768 565.237 7.54478 1.80828 -3.32826 0.0327965 -505.421 0.0788103 -0.795496 505.422
88 1 623.936 565.223 7.50217 3.48869 -3.222 0.00247678 -505.115 0.0694317 -0.837545 505.115
89 1 623.698 563.243 5.40373 4.62337 -3.25334 0.155066 -505.329 0.429184 -1.28307 505.331
90 1 625.321 563.197 8.23279 2.59888 -3.24549 0.0901537 -505.138 0.384861 -0.933775 505.139
91 1 628.057 563.152 8.46475 3.04418 -3.23483 0.0687832 -505.264 0.343929 -0.701129 505.265
92 1 627.129 562.909 5.79959 5.04538 -3.29152 0.074235 -504.761 0.0989698 -0.886496 504.762
93 1 626.793 565.53 7.38496 1.77238 -3.2647 0.157938 -505.12 0.380054 -0.954046 505.121
94 1 629.879 565.24 7.81323 5.04482 -3.27852 0.176276 -504.896 0.0939529 -0.525048 504.896
95 1 630.031 563.021 5.5771 5.40599 -3.2388 0.0736544 -504.722 0.214701 -1.1083 504.723
96 1 631.356 562.945 8.13918 2.1783 -3.3313 0.0702844 -504.829 0.140307 -1.02589 504.83
97 1 634.287 562.931 8.41968 3.07752 -3.28443 0.0904289 -504.76 0.129491 -0.744586 504.761
98 1 632.88 562.939 5.77511 2.7491 -3.26042 0.100047 -504.736 0.136202 -0.909402 504.737
99 1 632.472 565.386 7.25287 3.81321 -3.28337 0.257003 -505.165 0.243492 -1.0846 505.166
100 1 635.657 565.064 7.45903 3.47163 -3.26391 0.0590425 -504.842 -0.0746108 -0.878003 504.843
101 1 635.647 562.82 5.27305 4.03939 -3.27468 0.430128 -504.832 0.021043 -1.41092 504.834
102 1 637.369 562.993 7.93289 2.3565 -3.29168 0.0709406 -504.54 0.19545 -1.23115 504.542
103 1 640.142 562.747 8.0476 1.48003 -3.26482 0.241048 -504.63 -0.0465423 -1.1165 504.631
104 1 638.679 562.589 5.6455 2.36532 -3.30378 0.0324335 -504.662 -0.206862 -1.03848 504.663
105 1 638.991 565.393 7.02852 6.38093 -3.19515 0.121147 -504.371 0.258393 -1.30859 504.372
106 1 641.466 565.041 7.49439 3.92571 -3.22816 0.0293976 -504.758 -0.0896725 -0.842803 504.758
107 1 641.324 562.699 5.92832 6.16874 -3.2169 0.14964 -504.88 -0.0927692 -0.755676 504.88
108 1 643.033 562.796 7.95497 1.15774 -3.31327 0.0484597 -504.603 0.00612223 -1.20916 504.604
109 1 645.613 562.671 7.99913 1.91985 -3.29149 0.285584 -504.885 -0.115326 -1.16506 504.887
110 1 644.433 562.351 5.54285 4.09322 -3.24857 0.103645 -504.634 -0.436789 -1.1412 504.635
111 1 644.193 565.208 7.43588 3.00346 -3.26716 0.117409 -504.893 0.0807371 -0.901374 504.893
112 1 647.228 565.155 7.32524 1.13187 -3.33059 0.136606 -504.72 0.0314429 -1.01202 504.721
113 1 647.142 562.965 5.65903 3.54017 -3.27224 0.0708778 -504.788 0.180924 -1.02502 504.789
114 1 648.482 562.379 7.80338 7.81493 -3.23352 0.168785 -504.88 -0.403115 -1.36067 504.882
115 1 651.237 562.86 8.23038 2.29761 -3.30919 0.0441723 -504.988 0.0810369 -0.933428 504.989
116 1 649.974 562.753 5.6551 1.00624 -3.33411 0.0682741 -504.819 -0.0274694 -1.02872 504.82
117 1 649.857 565.207 7.31517 1.46073 -3.33152 0.0677035 -504.954 0.0875971 -1.02189 504.955
118 1 652.959 565.413 7.5196 3.27809 -3.27615 0.0863935 -504.714 0.296673 -0.81712 504.715
119 1 652.765 562.822 5.63054 0.780893 -3.34441 0.0590629 -504.891 0.044491 -1.05299 504.892
120 1 654.187 562.98 7.99299 1.79231 -3.34302 0.0183301 -504.9 0.204416 -1.17041 504.902
121 1 656.963 562.496 8.21027 5.65358 -3.29984 0.0218026 -504.987 -0.277172 -0.952577 504.988
122 1 655.536 562.983 5.28671 5.47163 -3.28765 0.0911396 -504.983 0.208487 -1.39632 504.985
123 1 655.887 565.254 7.08461 1.82064 -3.35082 0.209507 -504.649 0.140943 -1.2516 504.65
124 1 658.769 565.328 7.06119 2.76025 -3.31039 0.0253551 -504.629 0.218199 -1.27443 504.631
125 1 658.507 562.715 5.84461 5.11972 -3.18613 0.0649571 -504.875 -0.0564752 -0.837825 504.875
126 1 660.004 562.799 8.0078 1.8691 -3.2834 0.124384 -504.809 0.0291317 -1.15444 504.811
127 1 663.241 562.706 8.17075 1.23849 -3.26851 0.225801 -504.436 -0.060989 -0.990891 504.437
128 1 661.724 562.974 5.35131 4.25063 -3.27246 0.170186 -504.521 0.205498 -1.33051 504.523
129 1 661.618 564.954 7.36409 2.99768 -3.29981 0.048003 -504.643 -0.152908 -0.970914 504.644
130 1 664.809 565.1 7.07396 4.30921 -3.20835 0.185067 -504.314 -0.004744 -1.26046 504.316
131 1 664.523 562.901 5.6982 1.03064 -3.33501 0.118489 -504.585 0.13586 -0.983039 504.586
132 1 665.983 562.791 8.24753 1.08353 -3.35712 0.0164294 -504.556 0.0267044 -0.91353 504.557
133 1 669.093 563.011 8.49158 2.19906 -3.33101 0.159954 -504.31 0.249183 -0.668909 504.31
134 1 667.343 562.702 5.7536 1.03952 -3.38676 0.0528184 -504.628 -0.0609749 -0.927063 504.629
135 1 667.666 565.213 7.38306 2.13543 -3.35114 0.173684 -504.32 0.111188 -0.950788 504.321
136 1 670.549 565.508 7.35449 2.39183 -3.33058 0.133107 -504.3 0.409168 -0.978815 504.301
137 1 670.336 562.932 5.88968 0.843428 -3.30515 0.101115 -504.498 0.17183 -0.790435 504.498
138 1 671.979 563.321 8.56775 6.39621 -3.30191 0.0794799 -504.287 0.562504 -0.592206 504.287
139 1 674.887 562.905 8.36023 3.05441 -3.31847 0.0706189 -504.241 0.149477 -0.79923 504.242
140 1 673.467 563.104 5.79507 2.62062 -3.31869 0.010802 -504.23 0.346553 -0.884527 504.231
141 1 673.388 565.582 7.27205 2.06354 -3.34644 0.028021 -504.324 0.486088 -1.06075 504.325
142 1 676.288 565.262 7.23016 1.53287 -3.34531 0.0561938 -504.286 0.168496 -1.10217 504.287
143 1 676.101 562.932 5.78042 1.9363 -3.30589 0.0296428 -504.459 0.177001 -0.898687 504.46
144 1 677.697 562.941 8.27449 1.62487 -3.34515 0.129409 -504.294 0.187348 -0.884491 504.295
145 1 680.691 562.42 8.36449 4.10408 -3.30444 0.0653452 -504.164 -0.329983 -0.794023 504.165
146 1 679.038 562.768 5.90372 1.70242 -3.30948 0.397916 -504.385 0.0161159 -0.774916 504.386
147 1 679.319 565.394 7.72517 5.26471 -3.2737 0.130931 -504.118 0.303405 -0.606696 504.118
148 1 681.971 564.765 7.40024 3.6658 -3.24426 0.042351 -504.328 -0.323138 -0.931183 504.329
149 1 681.996 562.851 5.7885 1.43723 -3.29474 0.108759 -504.29 0.101751 -0.889682 504.291
150 1 683.685 562.649 8.1674 1.30364 -3.33373 0.0667773 -504.033 -0.0987704 -0.990678 504.034
151 1 686.346 562.878 8.17914 1.09031 -3.29928 0.051614 -504.235 0.133089 -0.978536 504.236
152 1 685.077 562.738 5.73164 0.890208 -3.3635 0.0369984 -504.072 -0.00812993 -0.946127 504.073
153 1 685.317 565.086 7.44689 2.45742 -3.2877 0.0133944 -503.846 0.000737682 -0.88412 503.846
154 1 688.084 565.315 7.18765 1.90612 -3.28931 0.121925 -503.941 0.232523 -1.14298 503.943
155 1 687.847 562.671 5.45012 1.64478 -3.31308 0.0618087 -504.165 -0.072404 -1.22725 504.167
156 1 689.32 562.844 8.29635 1.32079 -3.29204 0.150735 -504.124 0.10175 -0.860942 504.124
157 1 692.496 562.558 8.31462 2.69221 -3.32348 0.240781 -503.811 -0.181341 -0.842322 503.812
158 1 690.914 562.628 5.68733 0.768643 -3.34232 0.0429546 -503.962 -0.112604 -0.989669 503.963
159 1 690.737 564.925 7.18859 3.39107 -3.32038 0.0363039 -504.151 -0.154543 -1.14169 504.152
160 1 693.736 564.87 7.24907 3.68964 -3.29641 0.152356 -504.015 -0.206386 -1.08088 504.016
161 1 693.784 562.758 5.74945 0.730752 -3.3305 0.11342 -503.954 0.0198913 -0.92721 503.955
162 1 695.118 562.75 8.35667 1.17569 -3.34455 0.0648001 -504.053 0.0135299 -0.79995 504.053
163 1 698.055 562.881 8.17389 0.504808 -3.36106 0.173246 -503.979 0.14763 -0.982431 503.98
164 1 696.615 562.782 5.67781 0.89565 -3.3768 0.106614 -503.986 0.0469189 -0.99855 503.987
165 1 696.385 565.235 7.41912 2.01524 -3.34695 0.000548632 -504.229 0.161208 -0.910526 504.23
166 1 699.354 565.303 7.15906 0.942409 -3.34031 0.0372466 -504.123 0.232275 -1.17031 504.125
167 1 699.608 562.938 5.61788 1.00923 -3.30617 0.0444671 -503.858 0.205204 -1.05819 503.859
168 1 700.811 563.134 8.08996 1.6862 -3.36431 0.0899728 -504.085 0.403025 -1.06608 504.087
169 1 703.805 563.361 8.32766 3.11331 -3.33755 0.0613283 -503.955 0.632955 -0.828118 503.956
170 1 702.261 563.005 5.65865 1.31021 -3.32645 0.0407815 -504.068 0.275359 -1.01714 504.069
171 1 702.556 565.363 7.32397 1.83409 -3.28754 0.0388743 -503.784 0.295258 -1.00513 503.785
172 1 705.334 565.562 7.44819 2.5872 -3.25094 0.0108535 -503.869 0.497073 -0.880669 503.87
173 1 705.059 562.859 5.72354 2.29344 -3.30444 0.0768919 -504.133 0.132332 -0.952003 504.134
174 1 706.578 562.848 8.07521 4.11559 -3.26671 0.00841332 -504.045 0.122514 -1.08033 504.047
175 1 709.693 563.128 8.35993 4.07053 -3.31354 0.181077 -503.793 0.405366 -0.795408 503.794
176 1 708.309 562.917 5.81846 1.76626 -3.29047 0.0871626 -503.746 0.193592 -0.85686 503.747
177 1 707.933 565.202 7.29452 4.38945 -3.26371 0.230091 -504.133 0.140191 -1.03412 504.134
178 1 711.305 565.168 7.57283 2.17879 -3.30137 0.0510924 -503.624 0.108865 -0.755627 503.624
179 1 711.45 562.673 6.27742 11.7862 -3.13969 0.142512 -503.468 -0.0481719 -0.397714 503.469
180 1 712.812 563.018 8.16552 2.65897 -3.18035 0.201062 -503.538 0.298947 -0.989637 503.539
181 1 715.797 562.95 8.20991 1.58564 -3.34655 0.117375 -503.416 0.233591 -0.945078 503.417
182 1 714.456 563.124 5.65745 4.64019 -3.27379 0.217216 -503.325 0.406515 -1.01751 503.327
183 1 714.136 565.156 7.39456 2.57742 -3.29335 0.0628372 -503.656 0.0995334 -0.933736 503.657
184 1 717.15 565.379 7.70138 2.20254 -3.21209 0.205839 -503.505 0.325637 -0.626768 503.506
185 1 717.088 563.016 5.82541 1.09329 -3.31162 0.159903 -503.557 0.301707 -0.849398 503.558
186 1 718.852 562.729 8.74993 4.28459 -3.26944 0.0447148 -503.224 0.0160215 -0.404913 503.224
187 1 721.692 563.038 8.6624 1.4221 -3.29389 0.0029403 -503.248 0.32746 -0.492305 503.248
188 1 719.982 563.022 6.17186 1.78646 -3.19442 0.159741 -503.526 0.310374 -0.50281 503.526
189 1 720.239 564.892 7.57275 5.09872 -3.21219 0.0455376 -503.279 -0.158075 -0.755257 503.28
190 1 723.003 565.467 7.73198 1.07963 -3.38188 0.0678037 -503.378 0.420192 -0.595884 503.378
191 1 723.017 562.979 6.39085 1.96043 -3.31446 0.147724 -503.355 0.27074 -0.283667 503.355
192 1 724.515 563.004 8.44772 1.40193 -3.31445 0.0369854 -503.288 0.297343 -0.706844 503.289
193 1 727.205 562.888 8.49111 2.06496 -3.34327 0.00600268 -503.462 0.183559 -0.663343 503.462
194 1 725.888 562.901 6.06487 0.843015 -3.37234 0.0296995 -503.347 0.195065 -0.609527 503.348
195 1 725.926 565.58 7.77838 4.50451 -3.26668 0.222593 -503.318 0.535664 -0.54936 503.318
196 1 728.919 564.985 7.42128 3.99199 -3.28774 0.0778918 -503.188 -0.0561015 -0.906376 503.189
197 1 728.777 562.798 5.9279 0.779519 -3.33874 0.0983216 -503.321 0.0959715 -0.746414 503.322
198 1 730.737 562.659 8.61493 9.5584 -3.2487 0.0871896 -502.793 -0.0420459 -0.539459 502.794
199 1 733.368 562.53 8.93688 6.45166 -3.16941 0.0481457 -503.026 -0.168122 -0.217506 503.026
200 1 731.462 562.895 6.08602 2.84672 -3.34164 0.117875 -503.5 0.195467 -0.588247 503.5
201 1 731.551 565.173 7.75425 2.91566 -3.21728 0.050853 -503.42 0.134855 -0.573363 503.42
202 1 734.78 564.845 7.82307 6.01614 -3.23314 0.0797382 -503.054 -0.189197 -0.504549 503.054
203 1 734.406 562.907 5.83539 6.5275 -3.27962 0.16909 -503.419 0.211241 -0.838892 503.42
204 1 736.046 562.811 8.38643 2.1321 -3.23097 0.0683438 -503.211 0.116952 -0.767976 503.212
205 1 738.98 562.833 8.78383 1.72591 -3.33698 0.0496098 -503.14 0.142102 -0.370617 503.14
206 1 737.285 562.776 6.04315 2.17035 -3.34103 0.12187 -503.403 0.0830694 -0.631168 503.404
207 1 737.53 565.164 7.63984 2.307 -3.30614 0.331079 -503.167 0.132778 -0.687821 503.168
208 1 740.718 565.083 7.90513 4.34983 -3.27099 0.0254015 -502.842 0.0546736 -0.422582 502.842
209 1 740.524 562.787 5.88822 2.36828 -3.25105 0.0567836 -503.028 0.0973767 -0.786133 503.029
210 1 741.928 562.802 9.02581 4.52182 -3.26113 0.0726899 -503.055 0.114473 -0.128664 503.055
211 1 744.564 562.809 8.7026 3.05037 -3.24667 0.0480187 -503.284 0.124393 -0.451914 503.284
212 1 743.572 562.791 5.78817 3.87782 -3.31119 0.142542 -502.844 0.105057 -0.88621 502.845
213 1 743.287 565.175 7.59601 1.94763 -3.29601 0.0701279 -503.136 0.151015 -0.731743 503.137
214 1 745.984 564.964 7.92184 3.72073 -3.28947 0.125345 -503.303 -0.0570983 -0.405969 503.303
215 1 746.247 562.632 5.88674 2.17428 -3.2132 0.0148643 -503.032 -0.0507606 -0.787689 503.032
216 1 747.95 562.577 8.27419 7.62242 -3.23726 0.0946695 -502.761 -0.103555 -0.88038 502.762
217 1 750.487 562.699 8.94264 4.11345 -3.24661 0.0455274 -503.087 0.0218948 -0.212009 503.087
218 1 749.046 562.685 5.666 4.54792 -3.15678 0.0613349 -503.097 0.00596582 -1.0085 503.098
219 1 748.999 565.245 8.02742 3.3243 -3.27153 0.135072 -503.151 0.227161 -0.300462 503.151
220 1 751.844 565.047 7.82526 2.34009 -3.29213 0.0263536 -503.169 0.0331661 -0.502717 503.169
221 1 751.679 562.986 5.98521 4.48935 -3.26218 0.0442328 -503.327 0.310664 -0.689385 503.327
222 1 753.537 562.867 8.77616 1.67684 -3.29055 0.0912079 -502.9 0.192913 -0.3786 502.9
223 1 756.689 562.716 8.86318 2.88331 -3.36435 0.0344028 -502.612 0.0462841 -0.291729 502.612
224 1 754.988 562.84 6.2677 0.931295 -3.327 0.149581 -502.881 0.167641 -0.407022 502.881
225 1 755.064 564.905 7.99492 2.41336 -3.30571 0.0225112 -502.813 -0.104901 -0.333185 502.813
226 1 758.116 565.048 7.84607 2.62097 -3.26726 0.0414309 -502.623 0.0417322 -0.482185 502.624
227 1 757.756 563.186 6.27455 2.84654 -3.25396 0.068332 -502.977 0.517425 -0.400324 502.977
228 1 759.557 562.748 8.83404 2.16564 -3.26979 0.149284 -502.607 0.081275 -0.321029 502.607
229 1 762.269 563.215 8.64765 1.76768 -3.30433 0.0630382 -502.758 0.552112 -0.507576 502.759
230 1 760.897 563.298 6.15386 2.81206 -3.33799 0.12545 -502.699 0.633678 -0.521172 502.7
231 1 760.919 565.727 7.82745 4.02577 -3.29985 0.0119791 -502.684 0.723682 -0.500964 502.684
232 1 763.644 565.629 7.79869 2.62392 -3.30985 0.118325 -502.822 0.630024 -0.529867 502.823
233 1 763.827 562.925 5.98113 3.09723 -3.27438 0.0959484 -502.632 0.264507 -0.694061 502.633
234 1 765.191 563.102 8.6593 0.706328 -3.36128 0.06476 -502.7 0.442572 -0.496071 502.7
235 1 768.087 563.131 8.92132 1.47853 -3.30909 0.194398 -502.668 0.476307 -0.234217 502.668
236 1 766.7 563.129 6.48115 2.53193 -3.32473 0.0784491 -502.622 0.472377 -0.194192 502.623
237 1 766.652 565.537 7.89989 1.46011 -3.30735 0.0172355 -502.677 0.541815 -0.428834 502.678
238 1 769.772 565.17 7.55359 5.10319 -3.29473 0.26821 -502.42 0.1783 -0.77531 502.421
239 1 769.35 562.681 6.30863 3.4582 -3.24393 0.197935 -502.837 0.0275262 -0.366898 502.837
240 1 770.868 562.778 8.92631 2.60079 -3.31938 0.0394409 -502.75 0.127171 -0.229425 502.75
241 1 774.1 562.684 8.67791 1.987 -3.30974 0.0140777 -502.382 0.0365228 -0.47802 502.382
242 1 772.391 562.886 6.27617 0.953151 -3.34032 0.0490143 -502.659 0.236686 -0.399558 502.659
243 1 772.35 565.445 8.12173 4.6917 -3.14943 0.0688452 -502.706 0.457677 -0.207368 502.706
244 1 775.256 565.054 7.97292 1.45888 -3.30275 0.225621 -502.663 0.0706285 -0.356371 502.663
245 1 775.526 562.838 6.42965 3.04285 -3.28374 0.210081 -502.387 0.192524 -0.246268 502.387
246 1 776.946 562.744 8.98746 2.50903 -3.31691 0.19361 -502.399 0.100321 -0.168648 502.399
247 1 80.1994 562.555 8.42791 4.95842 -3.24659 0.0905682 -502.502 -0.0848505 -0.728319 502.502
248 1 778.194 562.642 6.2409 1.16092 -3.3067 0.0880091 -502.583 0.000796891 -0.435168 502.583
249 1 777.875 565.21 7.91415 2.82231 -3.29376 0.150736 -502.907 0.229996 -0.415297 502.908
250 1 81.944 565.337 7.73478 4.61477 -3.24666 0.0248355 -502.195 0.360896 -0.59476 502.195
251 1 81.5497 562.632 5.9601 3.85344 -3.21223 0.122982 -502.583 -0.00579955 -0.71606 502.584
252 1 83.2898 563.207 8.73694 4.08815 -3.26409 0.0395033 -502.275 0.571112 -0.419344 502.275
253 1 86.1073 563.024 8.4458 2.10486 -3.34822 0.0459733 -502.321 0.392741 -0.710469 502.322
254 1 84.2767 562.837 6.40193 5.01656 -3.2841 0.0529593 -502.72 0.203259 -0.274253 502.72
255 1 84.7567 565.549 8.07166 5.40702 -3.3147 0.0760805 -502.245 0.577083 -0.257892 502.246
256 1 87.5114 565.221 7.67748 0.743635 -3.36079 0.181582 -502.354 0.252805 -0.652017 502.354
257 1 87.223 562.945 5.95455 1.58444 -3.33191 0.0536154 -502.637 0.315723 -0.72158 502.638
258 1 88.9462 562.847 8.72818 1.36424 -3.33934 0.0534557 -502.346 0.219071 -0.428022 502.346
259 1 91.7438 562.84 8.48048 0.935598 -3.3477 0.0534671 -502.412 0.215799 -0.675611 502.412
260 1 90.0171 562.864 6.13049 2.38713 -3.27692 0.0307288 -502.707 0.237956 -0.545546 502.707
261 1 90.4467 565.265 7.43138 3.51388 -3.30559 0.0940396 -502.282 0.301107 -0.89803 502.283
262 1 93.0555 565.453 7.79274 2.42457 -3.27002 0.0511229 -502.537 0.493036 -0.536539 502.537
263 1 93.1467 562.891 6.18542 0.677401 -3.30764 0.0725425 -502.441 0.26865 -0.490494 502.441
264 1 94.7338 562.858 8.41701 1.66145 -3.30838 0.189977 -502.285 0.238021 -0.73894 502.286
265 1 97.6291 563.116 8.43144 3.20377 -3.28804 0.0789861 -502.254 0.500032 -0.724348 502.254
266 1 96.1247 562.67 5.87757 3.3572 -3.31312 0.193986 -502.326 0.0515796 -0.798194 502.327
267 1 96.0092 565.15 7.71816 2.46396 -3.29244 0.0167614 -502.446 0.193175 -0.61097 502.447
268 1 99.3581 565.162 8.03451 3.79606 -3.27374 0.02594 -501.961 0.209202 -0.294465 501.961
269 1 99.1536 562.935 5.99663 2.10397 -3.18399 0.0830968 -502.161 0.320282 -0.678981 502.161
270 1 100.342 562.666 8.3523 7.55472 -3.21721 0.0113769 -502.404 0.0531871 -0.803346 502.405
271 1 103.228 562.83 8.8646 0.904909 -3.36011 0.143328 -502.382 0.221399 -0.29091 502.382
272 1 101.911 562.898 6.31115 1.46323 -3.35003 0.0635421 -502.267 0.28723 -0.364323 502.267
273 1 101.978 565.189 7.85435 1.65341 -3.34572 0.00369788 -502.204 0.240288 -0.474484 502.204
274 1 104.926 565.04 7.96532 2.99581 -3.31911 0.0731625 -502.12 0.0940566 -0.363386 502.12
275 1 104.638 562.969 6.25324 1.8088 -3.3218 0.0474589 -502.404 0.36167 -0.422101 502.404
276 1 106.235 562.947 8.94403 1.40641 -3.29166 0.046174 -502.239 0.341198 -0.211358 502.239
277 1 109.329 562.929 8.63305 1.60917 -3.32196 0.0178161 -502.008 0.327243 -0.522238 502.009
278 1 107.871 562.864 6.21694 1.09356 -3.26492 0.141733 -502.034 0.259836 -0.458295 502.035
279 1 107.79 565.255 7.4185 5.45243 -3.30133 0.130415 -502.119 0.312806 -0.910096 502.12
280 1 110.741 565.069 8.00014 2.45841 -3.29543 0.0362149 -502.032 0.129761 -0.328355 502.032
281 1 111.11 562.99 6.22112 5.00046 -3.25537 0.00724037 -501.659 0.389867 -0.454007 501.659
282 1 112.411 562.789 8.71503 1.57584 -3.35605 0.00604383 -501.789 0.190106 -0.440164 501.79
283 1 115.331 562.873 8.68797 1.71819 -3.32205 0.0586989 -501.733 0.27724 -0.467126 501.734
284 1 113.707 562.707 6.22381 1.19199 -3.25052 0.0964607 -501.926 0.109461 -0.451224 501.926
285 1 113.891 565.432 7.92093 3.08824 -3.28955 0.037118 -501.746 0.496411 -0.407471 501.746
286 1 116.535 565.283 8.2327 3.14901 -3.3019 0.0102355 -501.964 0.35051 -0.0956023 501.964
287 1 116.695 562.863 6.4433 1.34363 -3.35398 0.0396968 -501.801 0.268546 -0.231642 501.801
288 1 118.127 562.761 8.82477 0.434209 -3.35957 0.0591295 -501.801 0.168002 -0.330221 501.801
289 1 120.986 562.784 8.7086 1.07457 -3.31424 0.00856987 -501.806 0.194029 -0.446277 501.806
290 1 119.482 562.734 6.27062 0.722477 -3.38142 0.0818513 -501.878 0.14289 -0.404203 501.878
291 1 119.575 564.996 7.99003 2.20495 -3.33186 0.143303 -501.789 0.066741 -0.338171 501.789
292 1 122.398 565.254 7.80422 1.3399 -3.34071 0.108139 -501.828 0.326805 -0.523862 501.829
293 1 122.204 562.966 6.16661 1.35838 -3.31863 0.0539709 -502.019 0.377757 -0.508102 502.02
294 1 123.528 562.852 8.69081 3.23642 -3.30331 0.0183671 -502.127 0.264883 -0.463954 502.127
295 1 126.523 562.584 8.74574 1.88121 -3.32026 0.109318 -501.996 -0.000545143 -0.408906 501.996
296 1 125.127 562.697 6.1338 1.48785 -3.28054 0.00842244 -501.96 0.111249 -0.540797 501.96
297 1 125.128 565.315 7.89625 1.69294 -3.26438 0.0217457 -501.963 0.390549 -0.431713 501.963
298 1 128.146 565.201 7.70333 1.82614 -3.29099 0.0436506 -501.808 0.279671 -0.624537 501.808
299 1 128.125 562.362 6.19602 5.30971 -3.28612 0.0601985 -501.826 -0.221129 -0.478461 501.826
300 1 129.595 562.801 8.61736 0.991242 -3.28068 0.266474 -501.787 0.219607 -0.537181 501.787
301 1 132.708 562.951 8.71106 1.70436 -3.3118 0.174014 -501.538 0.371444 -0.443385 501.539
302 1 131.157 562.965 6.08352 2.18943 -3.37293 0.0447697 -501.657 0.384201 -0.590868 501.658
303 1 130.804 564.914 8.00822 4.40943 -3.27247 0.0755781 -502.013 -0.00467832 -0.319531 502.013
304 1 133.733 565.147 7.99283 2.20532 -3.27672 0.0114433 -501.948 0.22997 -0.334814 501.948
305 1 134.033 562.892 6.18172 0.920068 -3.3728 0.0937816 -501.645 0.313676 -0.492567 501.645
306 1 135.469 562.533 8.80368 3.38514 -3.2967 0.0239287 -501.641 -0.0446 -0.350665 501.641
307 1 138.284 562.895 8.61698 2.50366 -3.26612 0.059145 -501.69 0.319632 -0.537267 501.69
308 1 136.726 563.208 6.42985 5.74366 -3.21907 0.118885 -501.816 0.631706 -0.24433 501.816
309 1 136.728 565.22 7.91556 1.583 -3.30153 0.0990678 -501.816 0.305721 -0.412009 501.816
310 1 139.826 565.268 7.98402 1.10963 -3.34374 0.248959 -501.581 0.355321 -0.343456 501.581
311 1 139.89 562.641 6.56215 4.69365 -3.27456 0.0393756 -501.515 0.067176 -0.111957 501.515
312 1 141.437 562.85 8.76883 0.90732 -3.29632 0.134979 -501.4 0.277243 -0.38535 501.4
313 1 144.368 562.652 8.73555 1.86957 -3.33619 0.11546 -501.333 0.081063 -0.418554 501.333
314 1 142.97 563.074 6.39237 3.37482 -3.26897 0.169384 -501.299 0.501775 -0.281664 501.299
315 1 142.7 565.177 7.95669 0.636084 -3.33049 0.00992852 -501.571 0.266724 -0.370701 501.571
316 1 145.609 564.867 7.72085 6.26324 -3.14656 0.280917 -501.525 -0.0418309 -0.606479 501.526
317 1 145.746 563.006 6.35264 2.33037 -3.13623 0.111734 -501.387 0.435479 -0.321321 501.387
318 1 147.175 562.866 8.73704 0.807815 -3.35631 0.102726 -501.39 0.296263 -0.416991 501.39
319 1 149.902 562.836 8.53441 3.74457 -3.25211 0.020739 -501.526 0.26816 -0.619575 501.527
320 1 148.777 562.74 6.12953 2.5151 -3.34378 0.0912558 -501.219 0.171917 -0.544364 501.219
321 1 148.525 565.037 8.11427 1.98342 -3.32415 0.0824979 -501.473 0.130468 -0.213005 501.473
322 1 151.632 564.861 8.12092 2.74047 -3.30577 0.142483 -501.23 -0.0438937 -0.206285 501.23
323 1 151.674 562.718 6.17483 1.33114 -3.37048 0.198319 -501.186 0.151568 -0.499014 501.186